ITEM: TIMESTEP
0
ITEM: NUMBER OF ATOMS
2000
ITEM: BOX BOUNDS pp pp pp
0.0000000000000000e+00 2.8553120000000000e+01
0.0000000000000000e+00 2.8553120000000000e+01
0.0000000000000000e+00 2.8553120000000000e+01
ITEM: ATOMS id type x y z c_eng v_hyst 
1 1 0 0 0 -4.01299 -0.422242 
201 1 0 0 2.85531 -4.01299 -0.422242 
21 1 0 2.85531 0 -4.01299 -0.422242 
221 1 0 2.85531 2.85531 -4.01299 -0.422242 
3 1 2.85531 0 0 -4.01299 -0.422242 
203 1 2.85531 0 2.85531 -4.01299 -0.422242 
23 1 2.85531 2.85531 0 -4.01299 -0.422242 
223 1 2.85531 2.85531 2.85531 -4.01299 -0.422242 
5 1 5.71062 0 0 -4.01299 -0.422242 
205 1 5.71062 0 2.85531 -4.01299 -0.422242 
25 1 5.71062 2.85531 0 -4.01299 -0.422242 
225 1 5.71062 2.85531 2.85531 -4.01299 -0.422242 
2 1 1.42766 1.42766 1.42766 -4.01299 -0.422242 
202 1 1.42766 1.42766 4.28297 -4.01299 -0.422242 
22 1 1.42766 4.28297 1.42766 -4.01299 -0.422242 
222 1 1.42766 4.28297 4.28297 -4.01299 -0.422242 
4 1 4.28297 1.42766 1.42766 -4.01299 -0.422242 
204 1 4.28297 1.42766 4.28297 -4.01299 -0.422242 
24 1 4.28297 4.28297 1.42766 -4.01299 -0.422242 
224 1 4.28297 4.28297 4.28297 -4.01299 -0.422242 
41 1 0 5.71062 0 -4.01299 -0.422242 
241 1 0 5.71062 2.85531 -4.01299 -0.422242 
61 1 0 8.56594 0 -4.01299 -0.422242 
261 1 0 8.56594 2.85531 -4.01299 -0.422242 
43 1 2.85531 5.71062 0 -4.01299 -0.422242 
243 1 2.85531 5.71062 2.85531 -4.01299 -0.422242 
63 1 2.85531 8.56594 0 -4.01299 -0.422242 
263 1 2.85531 8.56594 2.85531 -4.01299 -0.422242 
45 1 5.71062 5.71062 0 -4.01299 -0.422242 
245 1 5.71062 5.71062 2.85531 -4.01299 -0.422242 
65 1 5.71062 8.56594 0 -4.01299 -0.422242 
265 1 5.71062 8.56594 2.85531 -4.01299 -0.422242 
42 1 1.42766 7.13828 1.42766 -4.01299 -0.422242 
242 1 1.42766 7.13828 4.28297 -4.01299 -0.422242 
44 1 4.28297 7.13828 1.42766 -4.01299 -0.422242 
244 1 4.28297 7.13828 4.28297 -4.01299 -0.422242 
81 1 0 11.4212 0 -4.01299 -0.422242 
281 1 0 11.4212 2.85531 -4.01299 -0.422242 
83 1 2.85531 11.4212 0 -4.01299 -0.422242 
283 1 2.85531 11.4212 2.85531 -4.01299 -0.422242 
85 1 5.71062 11.4212 0 -4.01299 -0.422242 
285 1 5.71062 11.4212 2.85531 -4.01299 -0.422242 
62 1 1.42766 9.99359 1.42766 -4.01299 -0.422242 
262 1 1.42766 9.99359 4.28297 -4.01299 -0.422242 
82 1 1.42766 12.8489 1.42766 -4.01299 -0.422242 
282 1 1.42766 12.8489 4.28297 -4.01299 -0.422242 
64 1 4.28297 9.99359 1.42766 -4.01299 -0.422242 
264 1 4.28297 9.99359 4.28297 -4.01299 -0.422242 
84 1 4.28297 12.8489 1.42766 -4.01299 -0.422242 
284 1 4.28297 12.8489 4.28297 -4.01299 -0.422242 
401 1 0 0 5.71062 -4.01299 -0.422242 
601 1 0 0 8.56594 -4.01299 -0.422242 
421 1 0 2.85531 5.71062 -4.01299 -0.422242 
621 1 0 2.85531 8.56594 -4.01299 -0.422242 
403 1 2.85531 0 5.71062 -4.01299 -0.422242 
603 1 2.85531 0 8.56594 -4.01299 -0.422242 
423 1 2.85531 2.85531 5.71062 -4.01299 -0.422242 
623 1 2.85531 2.85531 8.56594 -4.01299 -0.422242 
405 1 5.71062 0 5.71062 -4.01299 -0.422242 
605 1 5.71062 0 8.56594 -4.01299 -0.422242 
425 1 5.71062 2.85531 5.71062 -4.01299 -0.422242 
625 1 5.71062 2.85531 8.56594 -4.01299 -0.422242 
402 1 1.42766 1.42766 7.13828 -4.01299 -0.422242 
602 1 1.42766 1.42766 9.99359 -4.01299 -0.422242 
422 1 1.42766 4.28297 7.13828 -4.01299 -0.422242 
622 1 1.42766 4.28297 9.99359 -4.01299 -0.422242 
404 1 4.28297 1.42766 7.13828 -4.01299 -0.422242 
604 1 4.28297 1.42766 9.99359 -4.01299 -0.422242 
424 1 4.28297 4.28297 7.13828 -4.01299 -0.422242 
624 1 4.28297 4.28297 9.99359 -4.01299 -0.422242 
441 1 0 5.71062 5.71062 -4.01299 -0.422242 
641 1 0 5.71062 8.56594 -4.01299 -0.422242 
461 1 0 8.56594 5.71062 -4.01299 -0.422242 
661 1 0 8.56594 8.56594 -4.01299 -0.422242 
443 1 2.85531 5.71062 5.71062 -4.01299 -0.422242 
643 1 2.85531 5.71062 8.56594 -4.01299 -0.422242 
463 1 2.85531 8.56594 5.71062 -4.01299 -0.422242 
663 1 2.85531 8.56594 8.56594 -4.01299 -0.422242 
445 1 5.71062 5.71062 5.71062 -4.01299 -0.422242 
645 1 5.71062 5.71062 8.56594 -4.01299 -0.422242 
465 1 5.71062 8.56594 5.71062 -4.01299 -0.422242 
665 1 5.71062 8.56594 8.56594 -4.01299 -0.422242 
442 1 1.42766 7.13828 7.13828 -4.01299 -0.422242 
642 1 1.42766 7.13828 9.99359 -4.01299 -0.422242 
444 1 4.28297 7.13828 7.13828 -4.01299 -0.422242 
644 1 4.28297 7.13828 9.99359 -4.01299 -0.422242 
481 1 0 11.4212 5.71062 -4.01299 -0.422242 
681 1 0 11.4212 8.56594 -4.01299 -0.422242 
483 1 2.85531 11.4212 5.71062 -4.01299 -0.422242 
683 1 2.85531 11.4212 8.56594 -4.01299 -0.422242 
485 1 5.71062 11.4212 5.71062 -4.01299 -0.422242 
685 1 5.71062 11.4212 8.56594 -4.01299 -0.422242 
462 1 1.42766 9.99359 7.13828 -4.01299 -0.422242 
662 1 1.42766 9.99359 9.99359 -4.01299 -0.422242 
482 1 1.42766 12.8489 7.13828 -4.01299 -0.422242 
682 1 1.42766 12.8489 9.99359 -4.01299 -0.422242 
464 1 4.28297 9.99359 7.13828 -4.01299 -0.422242 
664 1 4.28297 9.99359 9.99359 -4.01299 -0.422242 
484 1 4.28297 12.8489 7.13828 -4.01299 -0.422242 
684 1 4.28297 12.8489 9.99359 -4.01299 -0.422242 
801 1 0 0 11.4212 -4.01299 -0.422242 
1001 1 0 0 14.2766 -4.01299 -0.422242 
821 1 0 2.85531 11.4212 -4.01299 -0.422242 
1021 1 0 2.85531 14.2766 -4.01299 -0.422242 
803 1 2.85531 0 11.4212 -4.01299 -0.422242 
1003 1 2.85531 0 14.2766 -4.01299 -0.422242 
823 1 2.85531 2.85531 11.4212 -4.01299 -0.422242 
1023 1 2.85531 2.85531 14.2766 -4.01299 -0.422242 
805 1 5.71062 0 11.4212 -4.01299 -0.422242 
1005 1 5.71062 0 14.2766 -4.01299 -0.422242 
825 1 5.71062 2.85531 11.4212 -4.01299 -0.422242 
1025 1 5.71062 2.85531 14.2766 -4.01299 -0.422242 
802 1 1.42766 1.42766 12.8489 -4.01299 -0.422242 
1002 1 1.42766 1.42766 15.7042 -4.01299 -0.422242 
822 1 1.42766 4.28297 12.8489 -4.01299 -0.422242 
1022 1 1.42766 4.28297 15.7042 -4.01299 -0.422242 
804 1 4.28297 1.42766 12.8489 -4.01299 -0.422242 
1004 1 4.28297 1.42766 15.7042 -4.01299 -0.422242 
824 1 4.28297 4.28297 12.8489 -4.01299 -0.422242 
1024 1 4.28297 4.28297 15.7042 -4.01299 -0.422242 
841 1 0 5.71062 11.4212 -4.01299 -0.422242 
1041 1 0 5.71062 14.2766 -4.01299 -0.422242 
861 1 0 8.56594 11.4212 -4.01299 -0.422242 
1061 1 0 8.56594 14.2766 -4.01299 -0.422242 
843 1 2.85531 5.71062 11.4212 -4.01299 -0.422242 
1043 1 2.85531 5.71062 14.2766 -4.01299 -0.422242 
863 1 2.85531 8.56594 11.4212 -4.01299 -0.422242 
1063 1 2.85531 8.56594 14.2766 -4.01299 -0.422242 
845 1 5.71062 5.71062 11.4212 -4.01299 -0.422242 
1045 1 5.71062 5.71062 14.2766 -4.01299 -0.422242 
865 1 5.71062 8.56594 11.4212 -4.01299 -0.422242 
1065 1 5.71062 8.56594 14.2766 -4.01299 -0.422242 
842 1 1.42766 7.13828 12.8489 -4.01299 -0.422242 
1042 1 1.42766 7.13828 15.7042 -4.01299 -0.422242 
844 1 4.28297 7.13828 12.8489 -4.01299 -0.422242 
1044 1 4.28297 7.13828 15.7042 -4.01299 -0.422242 
881 1 0 11.4212 11.4212 -4.01299 -0.422242 
1081 1 0 11.4212 14.2766 -4.01299 -0.422242 
883 1 2.85531 11.4212 11.4212 -4.01299 -0.422242 
1083 1 2.85531 11.4212 14.2766 -4.01299 -0.422242 
885 1 5.71062 11.4212 11.4212 -4.01299 -0.422242 
1085 1 5.71062 11.4212 14.2766 -4.01299 -0.422242 
862 1 1.42766 9.99359 12.8489 -4.01299 -0.422242 
1062 1 1.42766 9.99359 15.7042 -4.01299 -0.422242 
882 1 1.42766 12.8489 12.8489 -4.01299 -0.422242 
1082 1 1.42766 12.8489 15.7042 -4.01299 -0.422242 
864 1 4.28297 9.99359 12.8489 -4.01299 -0.422242 
1064 1 4.28297 9.99359 15.7042 -4.01299 -0.422242 
884 1 4.28297 12.8489 12.8489 -4.01299 -0.422242 
1084 1 4.28297 12.8489 15.7042 -4.01299 -0.422242 
1201 1 0 0 17.1319 -4.01299 -0.422242 
1401 1 0 0 19.9872 -4.01299 -0.422242 
1221 1 0 2.85531 17.1319 -4.01299 -0.422242 
1421 1 0 2.85531 19.9872 -4.01299 -0.422242 
1203 1 2.85531 0 17.1319 -4.01299 -0.422242 
1403 1 2.85531 0 19.9872 -4.01299 -0.422242 
1223 1 2.85531 2.85531 17.1319 -4.01299 -0.422242 
1423 1 2.85531 2.85531 19.9872 -4.01299 -0.422242 
1205 1 5.71062 0 17.1319 -4.01299 -0.422242 
1405 1 5.71062 0 19.9872 -4.01299 -0.422242 
1225 1 5.71062 2.85531 17.1319 -4.01299 -0.422242 
1425 1 5.71062 2.85531 19.9872 -4.01299 -0.422242 
1202 1 1.42766 1.42766 18.5595 -4.01299 -0.422242 
1402 1 1.42766 1.42766 21.4148 -4.01299 -0.422242 
1222 1 1.42766 4.28297 18.5595 -4.01299 -0.422242 
1422 1 1.42766 4.28297 21.4148 -4.01299 -0.422242 
1204 1 4.28297 1.42766 18.5595 -4.01299 -0.422242 
1404 1 4.28297 1.42766 21.4148 -4.01299 -0.422242 
1224 1 4.28297 4.28297 18.5595 -4.01299 -0.422242 
1424 1 4.28297 4.28297 21.4148 -4.01299 -0.422242 
1241 1 0 5.71062 17.1319 -4.01299 -0.422242 
1441 1 0 5.71062 19.9872 -4.01299 -0.422242 
1261 1 0 8.56594 17.1319 -4.01299 -0.422242 
1461 1 0 8.56594 19.9872 -4.01299 -0.422242 
1243 1 2.85531 5.71062 17.1319 -4.01299 -0.422242 
1443 1 2.85531 5.71062 19.9872 -4.01299 -0.422242 
1263 1 2.85531 8.56594 17.1319 -4.01299 -0.422242 
1463 1 2.85531 8.56594 19.9872 -4.01299 -0.422242 
1245 1 5.71062 5.71062 17.1319 -4.01299 -0.422242 
1445 1 5.71062 5.71062 19.9872 -4.01299 -0.422242 
1265 1 5.71062 8.56594 17.1319 -4.01299 -0.422242 
1465 1 5.71062 8.56594 19.9872 -4.01299 -0.422242 
1242 1 1.42766 7.13828 18.5595 -4.01299 -0.422242 
1442 1 1.42766 7.13828 21.4148 -4.01299 -0.422242 
1244 1 4.28297 7.13828 18.5595 -4.01299 -0.422242 
1444 1 4.28297 7.13828 21.4148 -4.01299 -0.422242 
1281 1 0 11.4212 17.1319 -4.01299 -0.422242 
1481 1 0 11.4212 19.9872 -4.01299 -0.422242 
1283 1 2.85531 11.4212 17.1319 -4.01299 -0.422242 
1483 1 2.85531 11.4212 19.9872 -4.01299 -0.422242 
1285 1 5.71062 11.4212 17.1319 -4.01299 -0.422242 
1485 1 5.71062 11.4212 19.9872 -4.01299 -0.422242 
1262 1 1.42766 9.99359 18.5595 -4.01299 -0.422242 
1462 1 1.42766 9.99359 21.4148 -4.01299 -0.422242 
1282 1 1.42766 12.8489 18.5595 -4.01299 -0.422242 
1482 1 1.42766 12.8489 21.4148 -4.01299 -0.422242 
1264 1 4.28297 9.99359 18.5595 -4.01299 -0.422242 
1464 1 4.28297 9.99359 21.4148 -4.01299 -0.422242 
1284 1 4.28297 12.8489 18.5595 -4.01299 -0.422242 
1484 1 4.28297 12.8489 21.4148 -4.01299 -0.422242 
1601 1 0 0 22.8425 -4.01299 -0.422242 
1801 1 0 0 25.6978 -4.01299 -0.422242 
1621 1 0 2.85531 22.8425 -4.01299 -0.422242 
1821 1 0 2.85531 25.6978 -4.01299 -0.422242 
1603 1 2.85531 0 22.8425 -4.01299 -0.422242 
1803 1 2.85531 0 25.6978 -4.01299 -0.422242 
1623 1 2.85531 2.85531 22.8425 -4.01299 -0.422242 
1823 1 2.85531 2.85531 25.6978 -4.01299 -0.422242 
1605 1 5.71062 0 22.8425 -4.01299 -0.422242 
1805 1 5.71062 0 25.6978 -4.01299 -0.422242 
1625 1 5.71062 2.85531 22.8425 -4.01299 -0.422242 
1825 1 5.71062 2.85531 25.6978 -4.01299 -0.422242 
1602 1 1.42766 1.42766 24.2702 -4.01299 -0.422242 
1802 1 1.42766 1.42766 27.1255 -4.01299 -0.422242 
1622 1 1.42766 4.28297 24.2702 -4.01299 -0.422242 
1822 1 1.42766 4.28297 27.1255 -4.01299 -0.422242 
1604 1 4.28297 1.42766 24.2702 -4.01299 -0.422242 
1804 1 4.28297 1.42766 27.1255 -4.01299 -0.422242 
1624 1 4.28297 4.28297 24.2702 -4.01299 -0.422242 
1824 1 4.28297 4.28297 27.1255 -4.01299 -0.422242 
1641 1 0 5.71062 22.8425 -4.01299 -0.422242 
1841 1 0 5.71062 25.6978 -4.01299 -0.422242 
1661 1 0 8.56594 22.8425 -4.01299 -0.422242 
1861 1 0 8.56594 25.6978 -4.01299 -0.422242 
1643 1 2.85531 5.71062 22.8425 -4.01299 -0.422242 
1843 1 2.85531 5.71062 25.6978 -4.01299 -0.422242 
1663 1 2.85531 8.56594 22.8425 -4.01299 -0.422242 
1863 1 2.85531 8.56594 25.6978 -4.01299 -0.422242 
1645 1 5.71062 5.71062 22.8425 -4.01299 -0.422242 
1845 1 5.71062 5.71062 25.6978 -4.01299 -0.422242 
1665 1 5.71062 8.56594 22.8425 -4.01299 -0.422242 
1865 1 5.71062 8.56594 25.6978 -4.01299 -0.422242 
1642 1 1.42766 7.13828 24.2702 -4.01299 -0.422242 
1842 1 1.42766 7.13828 27.1255 -4.01299 -0.422242 
1644 1 4.28297 7.13828 24.2702 -4.01299 -0.422242 
1844 1 4.28297 7.13828 27.1255 -4.01299 -0.422242 
1681 1 0 11.4212 22.8425 -4.01299 -0.422242 
1881 1 0 11.4212 25.6978 -4.01299 -0.422242 
1683 1 2.85531 11.4212 22.8425 -4.01299 -0.422242 
1883 1 2.85531 11.4212 25.6978 -4.01299 -0.422242 
1685 1 5.71062 11.4212 22.8425 -4.01299 -0.422242 
1885 1 5.71062 11.4212 25.6978 -4.01299 -0.422242 
1662 1 1.42766 9.99359 24.2702 -4.01299 -0.422242 
1862 1 1.42766 9.99359 27.1255 -4.01299 -0.422242 
1682 1 1.42766 12.8489 24.2702 -4.01299 -0.422242 
1882 1 1.42766 12.8489 27.1255 -4.01299 -0.422242 
1664 1 4.28297 9.99359 24.2702 -4.01299 -0.422242 
1864 1 4.28297 9.99359 27.1255 -4.01299 -0.422242 
1684 1 4.28297 12.8489 24.2702 -4.01299 -0.422242 
1884 1 4.28297 12.8489 27.1255 -4.01299 -0.422242 
101 1 0 14.2766 0 -4.01299 -0.422242 
301 1 0 14.2766 2.85531 -4.01299 -0.422242 
121 1 0 17.1319 0 -4.01299 -0.422242 
321 1 0 17.1319 2.85531 -4.01299 -0.422242 
103 1 2.85531 14.2766 0 -4.01299 -0.422242 
303 1 2.85531 14.2766 2.85531 -4.01299 -0.422242 
123 1 2.85531 17.1319 0 -4.01299 -0.422242 
323 1 2.85531 17.1319 2.85531 -4.01299 -0.422242 
105 1 5.71062 14.2766 0 -4.01299 -0.422242 
305 1 5.71062 14.2766 2.85531 -4.01299 -0.422242 
125 1 5.71062 17.1319 0 -4.01299 -0.422242 
325 1 5.71062 17.1319 2.85531 -4.01299 -0.422242 
102 1 1.42766 15.7042 1.42766 -4.01299 -0.422242 
302 1 1.42766 15.7042 4.28297 -4.01299 -0.422242 
122 1 1.42766 18.5595 1.42766 -4.01299 -0.422242 
322 1 1.42766 18.5595 4.28297 -4.01299 -0.422242 
104 1 4.28297 15.7042 1.42766 -4.01299 -0.422242 
304 1 4.28297 15.7042 4.28297 -4.01299 -0.422242 
124 1 4.28297 18.5595 1.42766 -4.01299 -0.422242 
324 1 4.28297 18.5595 4.28297 -4.01299 -0.422242 
141 1 0 19.9872 0 -4.01299 -0.422242 
341 1 0 19.9872 2.85531 -4.01299 -0.422242 
161 1 0 22.8425 0 -4.01299 -0.422242 
361 1 0 22.8425 2.85531 -4.01299 -0.422242 
143 1 2.85531 19.9872 0 -4.01299 -0.422242 
343 1 2.85531 19.9872 2.85531 -4.01299 -0.422242 
163 1 2.85531 22.8425 0 -4.01299 -0.422242 
363 1 2.85531 22.8425 2.85531 -4.01299 -0.422242 
145 1 5.71062 19.9872 0 -4.01299 -0.422242 
345 1 5.71062 19.9872 2.85531 -4.01299 -0.422242 
165 1 5.71062 22.8425 0 -4.01299 -0.422242 
365 1 5.71062 22.8425 2.85531 -4.01299 -0.422242 
142 1 1.42766 21.4148 1.42766 -4.01299 -0.422242 
342 1 1.42766 21.4148 4.28297 -4.01299 -0.422242 
144 1 4.28297 21.4148 1.42766 -4.01299 -0.422242 
344 1 4.28297 21.4148 4.28297 -4.01299 -0.422242 
181 1 0 25.6978 0 -4.01299 -0.422242 
381 1 0 25.6978 2.85531 -4.01299 -0.422242 
183 1 2.85531 25.6978 0 -4.01299 -0.422242 
383 1 2.85531 25.6978 2.85531 -4.01299 -0.422242 
185 1 5.71062 25.6978 0 -4.01299 -0.422242 
385 1 5.71062 25.6978 2.85531 -4.01299 -0.422242 
162 1 1.42766 24.2702 1.42766 -4.01299 -0.422242 
362 1 1.42766 24.2702 4.28297 -4.01299 -0.422242 
182 1 1.42766 27.1255 1.42766 -4.01299 -0.422242 
382 1 1.42766 27.1255 4.28297 -4.01299 -0.422242 
164 1 4.28297 24.2702 1.42766 -4.01299 -0.422242 
364 1 4.28297 24.2702 4.28297 -4.01299 -0.422242 
184 1 4.28297 27.1255 1.42766 -4.01299 -0.422242 
384 1 4.28297 27.1255 4.28297 -4.01299 -0.422242 
501 1 0 14.2766 5.71062 -4.01299 -0.422242 
701 1 0 14.2766 8.56594 -4.01299 -0.422242 
521 1 0 17.1319 5.71062 -4.01299 -0.422242 
721 1 0 17.1319 8.56594 -4.01299 -0.422242 
503 1 2.85531 14.2766 5.71062 -4.01299 -0.422242 
703 1 2.85531 14.2766 8.56594 -4.01299 -0.422242 
523 1 2.85531 17.1319 5.71062 -4.01299 -0.422242 
723 1 2.85531 17.1319 8.56594 -4.01299 -0.422242 
505 1 5.71062 14.2766 5.71062 -4.01299 -0.422242 
705 1 5.71062 14.2766 8.56594 -4.01299 -0.422242 
525 1 5.71062 17.1319 5.71062 -4.01299 -0.422242 
725 1 5.71062 17.1319 8.56594 -4.01299 -0.422242 
502 1 1.42766 15.7042 7.13828 -4.01299 -0.422242 
702 1 1.42766 15.7042 9.99359 -4.01299 -0.422242 
522 1 1.42766 18.5595 7.13828 -4.01299 -0.422242 
722 1 1.42766 18.5595 9.99359 -4.01299 -0.422242 
504 1 4.28297 15.7042 7.13828 -4.01299 -0.422242 
704 1 4.28297 15.7042 9.99359 -4.01299 -0.422242 
524 1 4.28297 18.5595 7.13828 -4.01299 -0.422242 
724 1 4.28297 18.5595 9.99359 -4.01299 -0.422242 
541 1 0 19.9872 5.71062 -4.01299 -0.422242 
741 1 0 19.9872 8.56594 -4.01299 -0.422242 
561 1 0 22.8425 5.71062 -4.01299 -0.422242 
761 1 0 22.8425 8.56594 -4.01299 -0.422242 
543 1 2.85531 19.9872 5.71062 -4.01299 -0.422242 
743 1 2.85531 19.9872 8.56594 -4.01299 -0.422242 
563 1 2.85531 22.8425 5.71062 -4.01299 -0.422242 
763 1 2.85531 22.8425 8.56594 -4.01299 -0.422242 
545 1 5.71062 19.9872 5.71062 -4.01299 -0.422242 
745 1 5.71062 19.9872 8.56594 -4.01299 -0.422242 
565 1 5.71062 22.8425 5.71062 -4.01299 -0.422242 
765 1 5.71062 22.8425 8.56594 -4.01299 -0.422242 
542 1 1.42766 21.4148 7.13828 -4.01299 -0.422242 
742 1 1.42766 21.4148 9.99359 -4.01299 -0.422242 
544 1 4.28297 21.4148 7.13828 -4.01299 -0.422242 
744 1 4.28297 21.4148 9.99359 -4.01299 -0.422242 
581 1 0 25.6978 5.71062 -4.01299 -0.422242 
781 1 0 25.6978 8.56594 -4.01299 -0.422242 
583 1 2.85531 25.6978 5.71062 -4.01299 -0.422242 
783 1 2.85531 25.6978 8.56594 -4.01299 -0.422242 
585 1 5.71062 25.6978 5.71062 -4.01299 -0.422242 
785 1 5.71062 25.6978 8.56594 -4.01299 -0.422242 
562 1 1.42766 24.2702 7.13828 -4.01299 -0.422242 
762 1 1.42766 24.2702 9.99359 -4.01299 -0.422242 
582 1 1.42766 27.1255 7.13828 -4.01299 -0.422242 
782 1 1.42766 27.1255 9.99359 -4.01299 -0.422242 
564 1 4.28297 24.2702 7.13828 -4.01299 -0.422242 
764 1 4.28297 24.2702 9.99359 -4.01299 -0.422242 
584 1 4.28297 27.1255 7.13828 -4.01299 -0.422242 
784 1 4.28297 27.1255 9.99359 -4.01299 -0.422242 
901 1 0 14.2766 11.4212 -4.01299 -0.422242 
1101 1 0 14.2766 14.2766 -4.01299 -0.422242 
921 1 0 17.1319 11.4212 -4.01299 -0.422242 
1121 1 0 17.1319 14.2766 -4.01299 -0.422242 
903 1 2.85531 14.2766 11.4212 -4.01299 -0.422242 
1103 1 2.85531 14.2766 14.2766 -4.01299 -0.422242 
923 1 2.85531 17.1319 11.4212 -4.01299 -0.422242 
1123 1 2.85531 17.1319 14.2766 -4.01299 -0.422242 
905 1 5.71062 14.2766 11.4212 -4.01299 -0.422242 
1105 1 5.71062 14.2766 14.2766 -4.01299 -0.422242 
925 1 5.71062 17.1319 11.4212 -4.01299 -0.422242 
1125 1 5.71062 17.1319 14.2766 -4.01299 -0.422242 
902 1 1.42766 15.7042 12.8489 -4.01299 -0.422242 
1102 1 1.42766 15.7042 15.7042 -4.01299 -0.422242 
922 1 1.42766 18.5595 12.8489 -4.01299 -0.422242 
1122 1 1.42766 18.5595 15.7042 -4.01299 -0.422242 
904 1 4.28297 15.7042 12.8489 -4.01299 -0.422242 
1104 1 4.28297 15.7042 15.7042 -4.01299 -0.422242 
924 1 4.28297 18.5595 12.8489 -4.01299 -0.422242 
1124 1 4.28297 18.5595 15.7042 -4.01299 -0.422242 
941 1 0 19.9872 11.4212 -4.01299 -0.422242 
1141 1 0 19.9872 14.2766 -4.01299 -0.422242 
961 1 0 22.8425 11.4212 -4.01299 -0.422242 
1161 1 0 22.8425 14.2766 -4.01299 -0.422242 
943 1 2.85531 19.9872 11.4212 -4.01299 -0.422242 
1143 1 2.85531 19.9872 14.2766 -4.01299 -0.422242 
963 1 2.85531 22.8425 11.4212 -4.01299 -0.422242 
1163 1 2.85531 22.8425 14.2766 -4.01299 -0.422242 
945 1 5.71062 19.9872 11.4212 -4.01299 -0.422242 
1145 1 5.71062 19.9872 14.2766 -4.01299 -0.422242 
965 1 5.71062 22.8425 11.4212 -4.01299 -0.422242 
1165 1 5.71062 22.8425 14.2766 -4.01299 -0.422242 
942 1 1.42766 21.4148 12.8489 -4.01299 -0.422242 
1142 1 1.42766 21.4148 15.7042 -4.01299 -0.422242 
944 1 4.28297 21.4148 12.8489 -4.01299 -0.422242 
1144 1 4.28297 21.4148 15.7042 -4.01299 -0.422242 
981 1 0 25.6978 11.4212 -4.01299 -0.422242 
1181 1 0 25.6978 14.2766 -4.01299 -0.422242 
983 1 2.85531 25.6978 11.4212 -4.01299 -0.422242 
1183 1 2.85531 25.6978 14.2766 -4.01299 -0.422242 
985 1 5.71062 25.6978 11.4212 -4.01299 -0.422242 
1185 1 5.71062 25.6978 14.2766 -4.01299 -0.422242 
962 1 1.42766 24.2702 12.8489 -4.01299 -0.422242 
1162 1 1.42766 24.2702 15.7042 -4.01299 -0.422242 
982 1 1.42766 27.1255 12.8489 -4.01299 -0.422242 
1182 1 1.42766 27.1255 15.7042 -4.01299 -0.422242 
964 1 4.28297 24.2702 12.8489 -4.01299 -0.422242 
1164 1 4.28297 24.2702 15.7042 -4.01299 -0.422242 
984 1 4.28297 27.1255 12.8489 -4.01299 -0.422242 
1184 1 4.28297 27.1255 15.7042 -4.01299 -0.422242 
1301 1 0 14.2766 17.1319 -4.01299 -0.422242 
1501 1 0 14.2766 19.9872 -4.01299 -0.422242 
1321 1 0 17.1319 17.1319 -4.01299 -0.422242 
1521 1 0 17.1319 19.9872 -4.01299 -0.422242 
1303 1 2.85531 14.2766 17.1319 -4.01299 -0.422242 
1503 1 2.85531 14.2766 19.9872 -4.01299 -0.422242 
1323 1 2.85531 17.1319 17.1319 -4.01299 -0.422242 
1523 1 2.85531 17.1319 19.9872 -4.01299 -0.422242 
1305 1 5.71062 14.2766 17.1319 -4.01299 -0.422242 
1505 1 5.71062 14.2766 19.9872 -4.01299 -0.422242 
1325 1 5.71062 17.1319 17.1319 -4.01299 -0.422242 
1525 1 5.71062 17.1319 19.9872 -4.01299 -0.422242 
1302 1 1.42766 15.7042 18.5595 -4.01299 -0.422242 
1502 1 1.42766 15.7042 21.4148 -4.01299 -0.422242 
1322 1 1.42766 18.5595 18.5595 -4.01299 -0.422242 
1522 1 1.42766 18.5595 21.4148 -4.01299 -0.422242 
1304 1 4.28297 15.7042 18.5595 -4.01299 -0.422242 
1504 1 4.28297 15.7042 21.4148 -4.01299 -0.422242 
1324 1 4.28297 18.5595 18.5595 -4.01299 -0.422242 
1524 1 4.28297 18.5595 21.4148 -4.01299 -0.422242 
1341 1 0 19.9872 17.1319 -4.01299 -0.422242 
1541 1 0 19.9872 19.9872 -4.01299 -0.422242 
1361 1 0 22.8425 17.1319 -4.01299 -0.422242 
1561 1 0 22.8425 19.9872 -4.01299 -0.422242 
1343 1 2.85531 19.9872 17.1319 -4.01299 -0.422242 
1543 1 2.85531 19.9872 19.9872 -4.01299 -0.422242 
1363 1 2.85531 22.8425 17.1319 -4.01299 -0.422242 
1563 1 2.85531 22.8425 19.9872 -4.01299 -0.422242 
1345 1 5.71062 19.9872 17.1319 -4.01299 -0.422242 
1545 1 5.71062 19.9872 19.9872 -4.01299 -0.422242 
1365 1 5.71062 22.8425 17.1319 -4.01299 -0.422242 
1565 1 5.71062 22.8425 19.9872 -4.01299 -0.422242 
1342 1 1.42766 21.4148 18.5595 -4.01299 -0.422242 
1542 1 1.42766 21.4148 21.4148 -4.01299 -0.422242 
1344 1 4.28297 21.4148 18.5595 -4.01299 -0.422242 
1544 1 4.28297 21.4148 21.4148 -4.01299 -0.422242 
1381 1 0 25.6978 17.1319 -4.01299 -0.422242 
1581 1 0 25.6978 19.9872 -4.01299 -0.422242 
1383 1 2.85531 25.6978 17.1319 -4.01299 -0.422242 
1583 1 2.85531 25.6978 19.9872 -4.01299 -0.422242 
1385 1 5.71062 25.6978 17.1319 -4.01299 -0.422242 
1585 1 5.71062 25.6978 19.9872 -4.01299 -0.422242 
1362 1 1.42766 24.2702 18.5595 -4.01299 -0.422242 
1562 1 1.42766 24.2702 21.4148 -4.01299 -0.422242 
1382 1 1.42766 27.1255 18.5595 -4.01299 -0.422242 
1582 1 1.42766 27.1255 21.4148 -4.01299 -0.422242 
1364 1 4.28297 24.2702 18.5595 -4.01299 -0.422242 
1564 1 4.28297 24.2702 21.4148 -4.01299 -0.422242 
1384 1 4.28297 27.1255 18.5595 -4.01299 -0.422242 
1584 1 4.28297 27.1255 21.4148 -4.01299 -0.422242 
1701 1 0 14.2766 22.8425 -4.01299 -0.422242 
1901 1 0 14.2766 25.6978 -4.01299 -0.422242 
1721 1 0 17.1319 22.8425 -4.01299 -0.422242 
1921 1 0 17.1319 25.6978 -4.01299 -0.422242 
1703 1 2.85531 14.2766 22.8425 -4.01299 -0.422242 
1903 1 2.85531 14.2766 25.6978 -4.01299 -0.422242 
1723 1 2.85531 17.1319 22.8425 -4.01299 -0.422242 
1923 1 2.85531 17.1319 25.6978 -4.01299 -0.422242 
1705 1 5.71062 14.2766 22.8425 -4.01299 -0.422242 
1905 1 5.71062 14.2766 25.6978 -4.01299 -0.422242 
1725 1 5.71062 17.1319 22.8425 -4.01299 -0.422242 
1925 1 5.71062 17.1319 25.6978 -4.01299 -0.422242 
1702 1 1.42766 15.7042 24.2702 -4.01299 -0.422242 
1902 1 1.42766 15.7042 27.1255 -4.01299 -0.422242 
1722 1 1.42766 18.5595 24.2702 -4.01299 -0.422242 
1922 1 1.42766 18.5595 27.1255 -4.01299 -0.422242 
1704 1 4.28297 15.7042 24.2702 -4.01299 -0.422242 
1904 1 4.28297 15.7042 27.1255 -4.01299 -0.422242 
1724 1 4.28297 18.5595 24.2702 -4.01299 -0.422242 
1924 1 4.28297 18.5595 27.1255 -4.01299 -0.422242 
1741 1 0 19.9872 22.8425 -4.01299 -0.422242 
1941 1 0 19.9872 25.6978 -4.01299 -0.422242 
1761 1 0 22.8425 22.8425 -4.01299 -0.422242 
1961 1 0 22.8425 25.6978 -4.01299 -0.422242 
1743 1 2.85531 19.9872 22.8425 -4.01299 -0.422242 
1943 1 2.85531 19.9872 25.6978 -4.01299 -0.422242 
1763 1 2.85531 22.8425 22.8425 -4.01299 -0.422242 
1963 1 2.85531 22.8425 25.6978 -4.01299 -0.422242 
1745 1 5.71062 19.9872 22.8425 -4.01299 -0.422242 
1945 1 5.71062 19.9872 25.6978 -4.01299 -0.422242 
1765 1 5.71062 22.8425 22.8425 -4.01299 -0.422242 
1965 1 5.71062 22.8425 25.6978 -4.01299 -0.422242 
1742 1 1.42766 21.4148 24.2702 -4.01299 -0.422242 
1942 1 1.42766 21.4148 27.1255 -4.01299 -0.422242 
1744 1 4.28297 21.4148 24.2702 -4.01299 -0.422242 
1944 1 4.28297 21.4148 27.1255 -4.01299 -0.422242 
1781 1 0 25.6978 22.8425 -4.01299 -0.422242 
1981 1 0 25.6978 25.6978 -4.01299 -0.422242 
1783 1 2.85531 25.6978 22.8425 -4.01299 -0.422242 
1983 1 2.85531 25.6978 25.6978 -4.01299 -0.422242 
1785 1 5.71062 25.6978 22.8425 -4.01299 -0.422242 
1985 1 5.71062 25.6978 25.6978 -4.01299 -0.422242 
1762 1 1.42766 24.2702 24.2702 -4.01299 -0.422242 
1962 1 1.42766 24.2702 27.1255 -4.01299 -0.422242 
1782 1 1.42766 27.1255 24.2702 -4.01299 -0.422242 
1982 1 1.42766 27.1255 27.1255 -4.01299 -0.422242 
1764 1 4.28297 24.2702 24.2702 -4.01299 -0.422242 
1964 1 4.28297 24.2702 27.1255 -4.01299 -0.422242 
1784 1 4.28297 27.1255 24.2702 -4.01299 -0.422242 
1984 1 4.28297 27.1255 27.1255 -4.01299 -0.422242 
7 1 8.56594 0 0 -4.01299 -0.422242 
207 1 8.56594 0 2.85531 -4.01299 -0.422242 
27 1 8.56594 2.85531 0 -4.01299 -0.422242 
227 1 8.56594 2.85531 2.85531 -4.01299 -0.422242 
9 1 11.4212 0 0 -4.01299 -0.422242 
209 1 11.4212 0 2.85531 -4.01299 -0.422242 
29 1 11.4212 2.85531 0 -4.01299 -0.422242 
229 1 11.4212 2.85531 2.85531 -4.01299 -0.422242 
6 1 7.13828 1.42766 1.42766 -4.01299 -0.422242 
206 1 7.13828 1.42766 4.28297 -4.01299 -0.422242 
26 1 7.13828 4.28297 1.42766 -4.01299 -0.422242 
226 1 7.13828 4.28297 4.28297 -4.01299 -0.422242 
8 1 9.99359 1.42766 1.42766 -4.01299 -0.422242 
208 1 9.99359 1.42766 4.28297 -4.01299 -0.422242 
28 1 9.99359 4.28297 1.42766 -4.01299 -0.422242 
228 1 9.99359 4.28297 4.28297 -4.01299 -0.422242 
10 1 12.8489 1.42766 1.42766 -4.01299 -0.422242 
210 1 12.8489 1.42766 4.28297 -4.01299 -0.422242 
30 1 12.8489 4.28297 1.42766 -4.01299 -0.422242 
230 1 12.8489 4.28297 4.28297 -4.01299 -0.422242 
47 1 8.56594 5.71062 0 -4.01299 -0.422242 
247 1 8.56594 5.71062 2.85531 -4.01299 -0.422242 
67 1 8.56594 8.56594 0 -4.01299 -0.422242 
267 1 8.56594 8.56594 2.85531 -4.01299 -0.422242 
49 1 11.4212 5.71062 0 -4.01299 -0.422242 
249 1 11.4212 5.71062 2.85531 -4.01299 -0.422242 
69 1 11.4212 8.56594 0 -4.01299 -0.422242 
269 1 11.4212 8.56594 2.85531 -4.01299 -0.422242 
46 1 7.13828 7.13828 1.42766 -4.01299 -0.422242 
246 1 7.13828 7.13828 4.28297 -4.01299 -0.422242 
48 1 9.99359 7.13828 1.42766 -4.01299 -0.422242 
248 1 9.99359 7.13828 4.28297 -4.01299 -0.422242 
50 1 12.8489 7.13828 1.42766 -4.01299 -0.422242 
250 1 12.8489 7.13828 4.28297 -4.01299 -0.422242 
87 1 8.56594 11.4212 0 -4.01299 -0.422242 
287 1 8.56594 11.4212 2.85531 -4.01299 -0.422242 
89 1 11.4212 11.4212 0 -4.01299 -0.422242 
289 1 11.4212 11.4212 2.85531 -4.01299 -0.422242 
66 1 7.13828 9.99359 1.42766 -4.01299 -0.422242 
266 1 7.13828 9.99359 4.28297 -4.01299 -0.422242 
86 1 7.13828 12.8489 1.42766 -4.01299 -0.422242 
286 1 7.13828 12.8489 4.28297 -4.01299 -0.422242 
68 1 9.99359 9.99359 1.42766 -4.01299 -0.422242 
268 1 9.99359 9.99359 4.28297 -4.01299 -0.422242 
88 1 9.99359 12.8489 1.42766 -4.01299 -0.422242 
288 1 9.99359 12.8489 4.28297 -4.01299 -0.422242 
70 1 12.8489 9.99359 1.42766 -4.01299 -0.422242 
270 1 12.8489 9.99359 4.28297 -4.01299 -0.422242 
90 1 12.8489 12.8489 1.42766 -4.01299 -0.422242 
290 1 12.8489 12.8489 4.28297 -4.01299 -0.422242 
407 1 8.56594 0 5.71062 -4.01299 -0.422242 
607 1 8.56594 0 8.56594 -4.01299 -0.422242 
427 1 8.56594 2.85531 5.71062 -4.01299 -0.422242 
627 1 8.56594 2.85531 8.56594 -4.01299 -0.422242 
409 1 11.4212 0 5.71062 -4.01299 -0.422242 
609 1 11.4212 0 8.56594 -4.01299 -0.422242 
429 1 11.4212 2.85531 5.71062 -4.01299 -0.422242 
629 1 11.4212 2.85531 8.56594 -4.01299 -0.422242 
406 1 7.13828 1.42766 7.13828 -4.01299 -0.422242 
606 1 7.13828 1.42766 9.99359 -4.01299 -0.422242 
426 1 7.13828 4.28297 7.13828 -4.01299 -0.422242 
626 1 7.13828 4.28297 9.99359 -4.01299 -0.422242 
408 1 9.99359 1.42766 7.13828 -4.01299 -0.422242 
608 1 9.99359 1.42766 9.99359 -4.01299 -0.422242 
428 1 9.99359 4.28297 7.13828 -4.01299 -0.422242 
628 1 9.99359 4.28297 9.99359 -4.01299 -0.422242 
410 1 12.8489 1.42766 7.13828 -4.01299 -0.422242 
610 1 12.8489 1.42766 9.99359 -4.01299 -0.422242 
430 1 12.8489 4.28297 7.13828 -4.01299 -0.422242 
630 1 12.8489 4.28297 9.99359 -4.01299 -0.422242 
447 1 8.56594 5.71062 5.71062 -4.01299 -0.422242 
647 1 8.56594 5.71062 8.56594 -4.01299 -0.422242 
467 1 8.56594 8.56594 5.71062 -4.01299 -0.422242 
667 1 8.56594 8.56594 8.56594 -4.01299 -0.422242 
449 1 11.4212 5.71062 5.71062 -4.01299 -0.422242 
649 1 11.4212 5.71062 8.56594 -4.01299 -0.422242 
469 1 11.4212 8.56594 5.71062 -4.01299 -0.422242 
669 1 11.4212 8.56594 8.56594 -4.01299 -0.422242 
446 1 7.13828 7.13828 7.13828 -4.01299 -0.422242 
646 1 7.13828 7.13828 9.99359 -4.01299 -0.422242 
448 1 9.99359 7.13828 7.13828 -4.01299 -0.422242 
648 1 9.99359 7.13828 9.99359 -4.01299 -0.422242 
450 1 12.8489 7.13828 7.13828 -4.01299 -0.422242 
650 1 12.8489 7.13828 9.99359 -4.01299 -0.422242 
487 1 8.56594 11.4212 5.71062 -4.01299 -0.422242 
687 1 8.56594 11.4212 8.56594 -4.01299 -0.422242 
489 1 11.4212 11.4212 5.71062 -4.01299 -0.422242 
689 1 11.4212 11.4212 8.56594 -4.01299 -0.422242 
466 1 7.13828 9.99359 7.13828 -4.01299 -0.422242 
666 1 7.13828 9.99359 9.99359 -4.01299 -0.422242 
486 1 7.13828 12.8489 7.13828 -4.01299 -0.422242 
686 1 7.13828 12.8489 9.99359 -4.01299 -0.422242 
468 1 9.99359 9.99359 7.13828 -4.01299 -0.422242 
668 1 9.99359 9.99359 9.99359 -4.01299 -0.422242 
488 1 9.99359 12.8489 7.13828 -4.01299 -0.422242 
688 1 9.99359 12.8489 9.99359 -4.01299 -0.422242 
470 1 12.8489 9.99359 7.13828 -4.01299 -0.422242 
670 1 12.8489 9.99359 9.99359 -4.01299 -0.422242 
490 1 12.8489 12.8489 7.13828 -4.01299 -0.422242 
690 1 12.8489 12.8489 9.99359 -4.01299 -0.422242 
807 1 8.56594 0 11.4212 -4.01299 -0.422242 
1007 1 8.56594 0 14.2766 -4.01299 -0.422242 
827 1 8.56594 2.85531 11.4212 -4.01299 -0.422242 
1027 1 8.56594 2.85531 14.2766 -4.01299 -0.422242 
809 1 11.4212 0 11.4212 -4.01299 -0.422242 
1009 1 11.4212 0 14.2766 -4.01299 -0.422242 
829 1 11.4212 2.85531 11.4212 -4.01299 -0.422242 
1029 1 11.4212 2.85531 14.2766 -4.01299 -0.422242 
806 1 7.13828 1.42766 12.8489 -4.01299 -0.422242 
1006 1 7.13828 1.42766 15.7042 -4.01299 -0.422242 
826 1 7.13828 4.28297 12.8489 -4.01299 -0.422242 
1026 1 7.13828 4.28297 15.7042 -4.01299 -0.422242 